/*--------------------------------*- C++ -*----------------------------------*\
  =========                 |
  \\      /  F ield         | OpenFOAM: The Open Source CFD Toolbox
   \\    /   O peration     | Website:  https://openfoam.org
    \\  /    A nd           | Version:  6
     \\/     M anipulation  |
\*---------------------------------------------------------------------------*/
FoamFile
{
    version     2.0;
    format      ascii;
    class       volVectorField;
    location    "3500";
    object      U;
}
// * * * * * * * * * * * * * * * * * * * * * * * * * * * * * * * * * * * * * //

dimensions      [0 1 -1 0 0 0 0];

internalField   nonuniform List<vector> 
10720
(
(0.0132507 -0.015952 -8.29822e-19)
(0.0137821 0.0106548 8.45309e-19)
(0.0185266 0.0379272 0)
(0.0270491 0.0631025 8.16896e-18)
(0.0392121 0.0852734 -9.65108e-18)
(0.054046 0.10285 -5.75749e-18)
(0.0696069 0.114375 -5.22428e-18)
(0.0848868 0.120606 0)
(0.0986796 0.121662 0)
(0.109907 0.118343 0)
(0.118504 0.112018 -3.22413e-21)
(0.124264 0.103473 0)
(0.127297 0.0935765 -2.78173e-18)
(0.12798 0.0830399 0)
(0.126455 0.0722628 0)
(0.123058 0.0616854 0)
(0.118021 0.0515131 -6.61051e-18)
(0.111607 0.042016 -1.16635e-17)
(0.104041 0.0333032 1.14699e-17)
(0.0956192 0.0255653 0)
(0.0865985 0.0188528 1.06246e-17)
(0.0773044 0.0132956 -2.06129e-17)
(0.0681662 0.00887473 1.00461e-17)
(0.0594977 0.00557265 -2.79724e-19)
(0.0518721 0.00326966 0)
(0.0453632 0.0016146 3.60304e-18)
(0.0395396 0.000369258 5.15553e-20)
(0.0342486 -0.000531945 -1.4342e-18)
(0.0294492 -0.00115001 -5.00609e-18)
(0.0251046 -0.00154055 -1.72199e-17)
(0.0211593 -0.00174114 7.32744e-18)
(0.0176586 -0.00180112 1.27609e-17)
(0.0144488 -0.00173742 1.06108e-17)
(0.0117799 -0.00162072 3.56119e-17)
(0.00907677 -0.00139158 -1.46827e-17)
(0.00737602 -0.00125217 -9.94543e-20)
(0.00464617 -0.000851348 7.06918e-20)
(0.00444432 -0.000910909 2.95708e-17)
(0.000880641 -0.000640833 -2.63147e-17)
(0.0162924 -0.0416218 -4.08914e-19)
(0.0230012 -0.0673205 -8.08727e-19)
(0.034913 -0.0939416 1.57759e-18)
(0.0512656 -0.117207 -3.13728e-18)
(0.0716255 -0.13576 -5.71309e-18)
(0.0944627 -0.147222 4.64939e-18)
(0.116334 -0.148916 1.08494e-17)
(0.133142 -0.14082 2.38309e-18)
(0.143344 -0.126498 0)
(0.146918 -0.108878 0)
(0.144105 -0.0903805 1.06323e-18)
(0.137147 -0.0736001 -1.62534e-19)
(0.12824 -0.0594531 6.49491e-19)
(0.118473 -0.0478974 -1.19274e-18)
(0.108945 -0.038856 -3.27352e-18)
(0.100217 -0.0317923 -2.72503e-18)
(0.0923544 -0.0262745 -4.36133e-18)
(0.0854382 -0.0219209 -3.49156e-18)
(0.0794025 -0.0184496 0)
(0.0741283 -0.0155833 0)
(0.0694539 -0.0131539 7.61927e-18)
(0.0652251 -0.0109908 4.69503e-19)
(0.061238 -0.00896869 -7.47207e-18)
(0.057136 -0.00694139 6.69382e-18)
(0.0525514 -0.00498946 1.51664e-20)
(0.0477772 -0.00331254 0)
(0.0430752 -0.00193103 -2.67188e-18)
(0.038524 -0.000826265 0)
(0.0341887 2.80941e-05 0)
(0.030112 0.000661907 -1.91557e-18)
(0.0263032 0.00110275 0)
(0.0228158 0.0013851 5.92748e-18)
(0.0195661 0.00153129 9.94977e-18)
(0.0167417 0.00158749 4.25254e-17)
(0.0139095 0.00153383 -1.43613e-17)
(0.0119092 0.00149748 4.87765e-20)
(0.00898404 0.00126121 0)
(0.00840364 0.00133272 -1.51442e-17)
(0.00412486 0.00120124 -1.3479e-17)
(0.0817882 -0.0302037 -6.76097e-19)
(0.0814036 0.0184028 9.08975e-19)
(0.0875099 0.0695939 0)
(0.100302 0.119669 0)
(0.119882 0.166009 3.68658e-18)
(0.145511 0.206459 6.88908e-18)
(0.174908 0.23818 0)
(0.206227 0.260485 0)
(0.237263 0.272784 -9.04969e-18)
(0.265648 0.2755 0)
(0.290131 0.270078 -1.63254e-17)
(0.309499 0.25781 0)
(0.323165 0.240359 -1.23543e-18)
(0.33116 0.219313 1.18356e-18)
(0.333437 0.195898 1.54026e-18)
(0.330372 0.171366 -7.32283e-18)
(0.32231 0.146529 1.10657e-17)
(0.309814 0.122346 1.30539e-17)
(0.293378 0.0993512 1.46333e-17)
(0.273731 0.0782525 1.01588e-18)
(0.251567 0.0593906 -1.6788e-17)
(0.227784 0.0432798 1.64267e-17)
(0.203565 0.0300474 -8.99413e-19)
(0.179909 0.0197889 0)
(0.158401 0.0123182 0)
(0.13951 0.00682491 0)
(0.122374 0.00266583 6.23514e-19)
(0.106665 -0.000399143 -1.35433e-19)
(0.0922834 -0.00256421 7.88131e-18)
(0.0791576 -0.0039971 3.72179e-20)
(0.0671542 -0.00481852 -2.79606e-20)
(0.0564159 -0.0051716 -1.90544e-19)
(0.046533 -0.00512587 1.65215e-17)
(0.0382053 -0.00486659 -2.75526e-17)
(0.0298494 -0.00427788 -1.7054e-19)
(0.0243497 -0.00386831 -3.7065e-17)
(0.0160318 -0.00276546 0)
(0.014854 -0.00286189 -2.31259e-17)
(0.00412353 -0.0020166 -4.08567e-17)
(0.0875984 -0.0769158 8.94666e-19)
(0.0990607 -0.123817 -1.73645e-18)
(0.118477 -0.172811 -1.35608e-17)
(0.14587 -0.219543 1.37792e-17)
(0.180713 -0.260055 0)
(0.221401 -0.290551 -9.84629e-18)
(0.263695 -0.306538 -3.52864e-18)
(0.301556 -0.305898 -1.99682e-17)
(0.330748 -0.291078 5.96651e-18)
(0.348994 -0.265583 -2.41047e-18)
(0.354993 -0.23365 2.83958e-18)
(0.350557 -0.20028 -4.62113e-19)
(0.338868 -0.168782 0)
(0.322294 -0.140695 9.25497e-19)
(0.303474 -0.116974 5.83368e-19)
(0.284317 -0.0973462 3.93717e-18)
(0.265757 -0.0813548 0)
(0.248461 -0.0683235 0)
(0.232721 -0.0577031 7.47537e-19)
(0.218504 -0.048841 -6.95118e-19)
(0.205596 -0.0412981 1.05549e-17)
(0.193699 -0.0346119 1.37652e-18)
(0.182371 -0.028447 -6.49177e-19)
(0.170756 -0.0223913 -1.01185e-17)
(0.157939 -0.0165708 9.91417e-18)
(0.144491 -0.0114566 8.62401e-18)
(0.131051 -0.00715021 0)
(0.117882 -0.00364123 0)
(0.105193 -0.000873399 0)
(0.0931426 0.00122703 8.83384e-21)
(0.081782 0.00273501 0)
(0.0712917 0.00374335 0)
(0.0614575 0.00432625 -3.12449e-17)
(0.0528223 0.00459942 -2.65731e-17)
(0.0441862 0.004548 2.24373e-17)
(0.0379149 0.00447375 -1.84559e-17)
(0.0290701 0.00387694 3.07473e-17)
(0.0268436 0.0040257 2.38265e-17)
(0.0141493 0.00363742 2.08179e-17)
(0.165486 -0.0347916 -2.27775e-19)
(0.164109 0.0212962 -4.55795e-18)
(0.169384 0.0812574 3.67261e-18)
(0.182065 0.141483 3.57135e-18)
(0.202421 0.198857 6.77228e-18)
(0.230325 0.251781 -1.93554e-17)
(0.264118 0.296947 1.26017e-17)
(0.302057 0.332614 1.05223e-17)
(0.34195 0.357439 8.15861e-19)
(0.381115 0.370861 8.09141e-18)
(0.417503 0.373442 -4.93615e-18)
(0.449114 0.36601 7.5696e-18)
(0.474411 0.350008 1.53376e-18)
(0.492608 0.327156 0)
(0.503015 0.299018 -1.53228e-18)
(0.505523 0.267343 7.24244e-18)
(0.500164 0.233512 0)
(0.487451 0.19911 -2.53088e-17)
(0.467813 0.16518 -1.45397e-17)
(0.442195 0.133035 1.99494e-18)
(0.411524 0.103446 -1.86347e-18)
(0.377173 0.0774328 -9.77332e-19)
(0.340916 0.0554517 -1.37837e-17)
(0.304462 0.0378583 6.9042e-18)
(0.270335 0.0245933 0)
(0.239607 0.0146247 5.77094e-18)
(0.211355 0.00700385 -6.50639e-19)
(0.185212 0.0013009 0)
(0.161068 -0.00281736 8.08026e-18)
(0.138868 -0.00563427 1.43066e-17)
(0.118435 -0.00736039 -2.44393e-17)
(0.100029 -0.00823094 -2.03805e-17)
(0.0830256 -0.00838622 -3.21365e-19)
(0.0685482 -0.00810371 -2.89124e-17)
(0.0541128 -0.0072709 -2.44326e-17)
(0.0442893 -0.00661383 3.91959e-17)
(0.0300729 -0.00490655 0)
(0.0273029 -0.00497377 -2.42962e-17)
(0.00920841 -0.00349089 8.61821e-17)
(0.172372 -0.0886061 -8.57825e-19)
(0.185045 -0.142603 -1.63379e-18)
(0.205879 -0.199732 7.08725e-18)
(0.235714 -0.256448 0)
(0.274052 -0.308078 5.92807e-18)
(0.320049 -0.351089 0)
(0.370302 -0.380652 1.77223e-17)
(0.419026 -0.393158 7.91484e-18)
(0.461199 -0.388917 6.09607e-18)
(0.493088 -0.369904 0)
(0.511783 -0.339632 -4.11215e-18)
(0.517284 -0.303184 -1.95887e-20)
(0.511701 -0.264902 -6.82871e-19)
(0.497286 -0.227732 0)
(0.477142 -0.193995 2.97103e-18)
(0.453981 -0.164441 1.05447e-18)
(0.429671 -0.139239 -6.62114e-18)
(0.405643 -0.117994 -4.24618e-18)
(0.38279 -0.100217 -1.5158e-18)
(0.36142 -0.0851487 6.5505e-19)
(0.341531 -0.072208 -1.0959e-17)
(0.322874 -0.0607419 0)
(0.304909 -0.0502434 0)
(0.286471 -0.0400806 7.90266e-20)
(0.266235 -0.0303283 0)
(0.244849 -0.0216176 -1.87309e-17)
(0.223201 -0.0141547 2.65115e-19)
(0.201756 -0.00797321 1.93172e-18)
(0.18088 -0.00301697 0)
(0.160877 0.000815335 3.10743e-18)
(0.141865 0.00363436 -5.45569e-18)
(0.124179 0.00558047 0)
(0.107506 0.00678589 1.64156e-17)
(0.0927446 0.00741353 0)
(0.0779998 0.00749888 0)
(0.0670651 0.00743964 3.39305e-20)
(0.0520536 0.00660341 -1.64413e-19)
(0.0476505 0.00677824 -2.49787e-17)
(0.0264809 0.00613195 -4.38191e-17)
(0.248036 -0.0337162 -8.66489e-19)
(0.246112 0.0222084 -1.74245e-18)
(0.250202 0.0826891 3.46532e-18)
(0.26143 0.144403 3.31677e-18)
(0.280026 0.204321 0)
(0.306376 0.261723 0)
(0.339564 0.31346 2.27418e-17)
(0.378286 0.357388 -2.15748e-17)
(0.420893 0.391911 0)
(0.465048 0.415687 1.47273e-17)
(0.508556 0.428319 1.11347e-17)
(0.549136 0.429836 7.97993e-18)
(0.584609 0.420886 -4.23579e-18)
(0.613391 0.402691 -1.86252e-18)
(0.634004 0.376563 0)
(0.645615 0.344294 3.40248e-18)
(0.647548 0.307414 1.80509e-18)
(0.639838 0.267898 2.31202e-17)
(0.622537 0.227198 1.79281e-18)
(0.596439 0.187183 -1.69158e-18)
(0.562433 0.149106 1.67598e-17)
(0.522104 0.114548 -2.77666e-18)
(0.477624 0.0844443 1.56117e-17)
(0.431294 0.0595498 6.80701e-18)
(0.386475 0.0401284 -4.00056e-19)
(0.34499 0.0251753 -5.53554e-18)
(0.306198 0.013587 4.08727e-20)
(0.269869 0.00477589 -3.76479e-20)
(0.235967 -0.00171751 -8.38079e-18)
(0.204523 -0.00628583 -2.22142e-19)
(0.175367 -0.00923055 1.32373e-17)
(0.148903 -0.0108722 -2.22517e-17)
(0.124346 -0.0114404 -1.77677e-17)
(0.103226 -0.0112768 -1.8745e-19)
(0.0822619 -0.0103392 2.5508e-17)
(0.0675641 -0.00946769 0)
(0.0471021 -0.00727554 3.41287e-17)
(0.0420894 -0.00723876 2.57863e-17)
(0.0164096 -0.00508027 -4.55489e-17)
(0.254999 -0.087353 -8.16465e-19)
(0.267264 -0.141084 3.46374e-18)
(0.286964 -0.19862 9.87832e-18)
(0.315453 -0.257246 0)
(0.352262 -0.312405 -5.95412e-18)
(0.397291 -0.3615 0)
(0.448254 -0.400213 -1.76513e-17)
(0.500472 -0.424414 1.01577e-18)
(0.549299 -0.432861 6.29093e-18)
(0.590767 -0.425955 3.0417e-18)
(0.621188 -0.405593 -4.95731e-19)
(0.638855 -0.375485 3.33464e-18)
(0.644182 -0.339574 1.34449e-18)
(0.638297 -0.301191 -2.93494e-19)
(0.62366 -0.263486 -3.08771e-18)
(0.602922 -0.228238 -5.25994e-18)
(0.578406 -0.196522 6.19585e-18)
(0.552136 -0.168638 2.27435e-19)
(0.525624 -0.144507 0)
(0.4997 -0.123573 -1.1243e-17)
(0.474765 -0.10532 -7.30832e-19)
(0.450796 -0.0890452 1.17869e-17)
(0.427319 -0.0741603 0)
(0.403087 -0.059893 1.00627e-19)
(0.376496 -0.0462128 0)
(0.348157 -0.0338224 9.40797e-18)
(0.319075 -0.0230292 0)
(0.289908 -0.0139422 -2.02462e-18)
(0.261186 -0.00653695 8.38218e-20)
(0.233388 -0.000707219 -5.09047e-20)
(0.206729 0.00367738 5.51061e-18)
(0.181727 0.00678893 1.58717e-19)
(0.158005 0.00882229 0)
(0.136829 0.00995951 -1.43547e-17)
(0.115676 0.0103369 -2.00871e-19)
(0.0996833 0.0103565 2.02542e-17)
(0.0782415 0.00942339 -6.80201e-17)
(0.0711169 0.00956835 -1.12407e-19)
(0.041407 0.00868899 0)
(0.321895 -0.0299873 -1.25522e-18)
(0.31977 0.0224317 -1.66795e-18)
(0.322868 0.0796088 6.67431e-18)
(0.332484 0.138499 -2.72808e-17)
(0.348727 0.196318 6.66859e-18)
(0.372269 0.253157 1.20855e-17)
(0.402737 0.306231 -1.16035e-17)
(0.439256 0.353485 0)
(0.480827 0.393484 -2.58181e-17)
(0.52569 0.424554 -6.63538e-18)
(0.571969 0.44573 0)
(0.617559 0.456393 -7.61843e-18)
(0.660176 0.456395 1.76168e-18)
(0.697778 0.446189 -4.5371e-18)
(0.728344 0.42648 0)
(0.750281 0.398601 -5.08684e-18)
(0.762167 0.363867 7.33136e-18)
(0.763263 0.324221 -8.62059e-19)
(0.752972 0.28126 0)
(0.731541 0.237155 1.50615e-17)
(0.699486 0.193573 -1.62433e-17)
(0.658242 0.152594 -9.26209e-19)
(0.610029 0.115675 -1.41711e-17)
(0.557538 0.0840848 -1.29874e-17)
(0.504751 0.0585652 0)
(0.454298 0.038378 0)
(0.406087 0.0224497 -1.3451e-18)
(0.360226 0.0101236 -1.48704e-19)
(0.316866 0.000856173 8.71889e-18)
(0.276223 -0.00583165 -2.29606e-19)
(0.238193 -0.0103221 2.1103e-19)
(0.203375 -0.0130087 2.25143e-17)
(0.170879 -0.0142227 0)
(0.142645 -0.0143419 6.42654e-17)
(0.114699 -0.0134559 -2.19056e-19)
(0.0945614 -0.0124197 0)
(0.0674753 -0.00987339 -5.83237e-20)
(0.0595391 -0.00966414 0)
(0.0260233 -0.00681624 4.76165e-17)
(0.328434 -0.0802561 1.617e-18)
(0.339626 -0.130517 -6.55228e-18)
(0.357318 -0.184886 6.22242e-18)
(0.38311 -0.24126 5.57897e-18)
(0.416531 -0.29545 -2.31529e-17)
(0.457973 -0.345816 -1.95616e-17)
(0.506084 -0.388837 1.82478e-17)
(0.557295 -0.420536 -1.44082e-17)
(0.607799 -0.439024 -4.83562e-18)
(0.65419 -0.443831 -3.41203e-18)
(0.692816 -0.435455 5.22263e-18)
(0.721092 -0.415979 -2.04866e-18)
(0.738096 -0.388199 2.49023e-19)
(0.743613 -0.354862 -2.40973e-19)
(0.738881 -0.319077 3.75285e-18)
(0.725702 -0.283077 -3.2477e-19)
(0.706192 -0.248653 0)
(0.682439 -0.216809 6.39008e-18)
(0.656345 -0.188088 -2.62237e-18)
(0.629195 -0.162378 1.23642e-17)
(0.601857 -0.139442 0)
(0.57464 -0.118703 -1.10705e-17)
(0.547323 -0.0996316 -9.98483e-18)
(0.518746 -0.0814151 9.86004e-18)
(0.487213 -0.0639323 0)
(0.453221 -0.0478955 9.42767e-18)
(0.417793 -0.0336996 0)
(0.381746 -0.0215481 0)
(0.345767 -0.0114801 0)
(0.310537 -0.00341252 -3.30557e-18)
(0.276394 0.00278379 0)
(0.244076 0.00729118 0)
(0.213179 0.0103677 1.7807e-17)
(0.185355 0.0121832 1.52504e-17)
(0.157521 0.0130212 0)
(0.136091 0.0131978 2.13325e-17)
(0.107949 0.0123209 6.39754e-20)
(0.0975503 0.0123905 0)
(0.0592245 0.011329 2.42417e-17)
(0.386267 -0.0254257 2.05405e-18)
(0.384158 0.0224764 -1.65995e-18)
(0.386535 0.0750283 0)
(0.394721 0.129443 2.77406e-19)
(0.408694 0.183136 1.86253e-17)
(0.429259 0.236813 -1.20945e-17)
(0.456337 0.288049 2.6926e-19)
(0.489379 0.335082 3.00988e-17)
(0.527893 0.376798 3.34929e-19)
(0.570689 0.411579 -2.11007e-17)
(0.616373 0.438295 6.1952e-18)
(0.663297 0.456022 -8.08848e-18)
(0.709454 0.464074 -3.32982e-18)
(0.752792 0.462268 -2.90585e-18)
(0.791113 0.450665 0)
(0.822395 0.429944 -1.26152e-18)
(0.844615 0.400923 -3.88951e-18)
(0.856288 0.365132 -1.76285e-17)
(0.85602 0.323982 6.73063e-18)
(0.843296 0.279642 -9.83189e-18)
(0.817905 0.23392 -1.58981e-18)
(0.780737 0.189211 0)
(0.73367 0.147434 1.31545e-17)
(0.679391 0.11036 8.32486e-19)
(0.622177 0.0792993 -3.98457e-19)
(0.565358 0.0539755 -5.35618e-18)
(0.509542 0.0335431 1.19776e-18)
(0.455355 0.0174088 2.45557e-18)
(0.403266 0.00502291 -8.83097e-18)
(0.353786 -0.00413513 -4.72621e-19)
(0.306965 -0.0105034 1.43588e-17)
(0.263658 -0.0145265 2.29032e-17)
(0.222939 -0.0166416 0)
(0.187181 -0.0172323 1.63041e-19)
(0.151819 -0.0165756 -2.8134e-17)
(0.125681 -0.0154454 0)
(0.0915681 -0.0126882 -7.53654e-17)
(0.080007 -0.0122492 0)
(0.0383689 -0.00872465 -5.00116e-17)
(0.392205 -0.0713873 -1.65886e-18)
(0.40216 -0.117228 3.13538e-18)
(0.417714 -0.167215 0)
(0.440539 -0.219628 0)
(0.470145 -0.270677 1.15205e-17)
(0.507184 -0.319444 3.98249e-17)
(0.550923 -0.363157 0)
(0.598658 -0.398293 -1.41678e-17)
(0.647448 -0.422907 -1.10195e-17)
(0.694705 -0.436291 7.69686e-18)
(0.737338 -0.438194 5.59589e-19)
(0.77267 -0.42947 2.27382e-18)
(0.799148 -0.411748 8.97599e-19)
(0.815637 -0.38682 -2.54727e-19)
(0.822152 -0.357108 -3.01492e-18)
(0.81938 -0.32466 4.5726e-18)
(0.808631 -0.291437 -1.06961e-18)
(0.791529 -0.258868 2.22458e-18)
(0.769903 -0.228038 -1.14434e-18)
(0.745208 -0.199335 -8.73859e-18)
(0.718634 -0.172936 -1.26833e-18)
(0.690833 -0.148545 1.36858e-18)
(0.661893 -0.12582 9.36277e-18)
(0.630914 -0.104044 0)
(0.596249 -0.0830557 -6.29407e-19)
(0.55828 -0.0635581 -1.84076e-17)
(0.517968 -0.0460196 1.39259e-19)
(0.476242 -0.0307476 -1.2936e-19)
(0.43392 -0.017874 0)
(0.391902 -0.0073704 3.41152e-18)
(0.350668 0.000863973 0)
(0.311215 0.00699375 0)
(0.273146 0.0113353 -1.82729e-17)
(0.238537 0.014011 -1.6099e-17)
(0.203804 0.0154932 0)
(0.176595 0.0159218 -2.23583e-17)
(0.141491 0.0152671 7.52751e-17)
(0.127272 0.0152301 -2.47464e-19)
(0.0802411 0.0140631 -2.53341e-17)
(0.441969 -0.0209614 4.06686e-19)
(0.439999 0.0225002 -1.58783e-18)
(0.441889 0.0703927 6.13949e-18)
(0.448944 0.120078 -6.30899e-18)
(0.461005 0.169163 -1.22667e-17)
(0.478902 0.21871 0)
(0.502694 0.266631 2.0153e-17)
(0.532021 0.31142 -1.63083e-18)
(0.566717 0.352331 8.23944e-18)
(0.606027 0.387946 1.41256e-17)
(0.649014 0.417215 0)
(0.694535 0.439214 1.60153e-17)
(0.74102 0.453036 7.33334e-18)
(0.786739 0.458133 9.73318e-18)
(0.829672 0.454123 0)
(0.867741 0.441102 -1.59781e-18)
(0.898681 0.419333 -4.77849e-18)
(0.920501 0.389776 8.45903e-18)
(0.931184 0.353427 -1.04799e-17)
(0.929385 0.312105 1.11131e-17)
(0.914038 0.267479 1.64227e-18)
(0.885167 0.221965 -1.44125e-17)
(0.843908 0.177733 0)
(0.79248 0.136932 -1.37462e-17)
(0.734986 0.10141 7.82575e-19)
(0.675176 0.071466 5.95748e-18)
(0.614333 0.0466564 0)
(0.553697 0.0266023 -1.77023e-19)
(0.494165 0.0108565 4.16616e-19)
(0.436655 -0.00107409 1.55887e-17)
(0.381461 -0.00963779 -1.39686e-17)
(0.32978 -0.0152968 -2.37935e-17)
(0.280726 -0.0185872 2.02682e-17)
(0.237143 -0.0198629 -1.04207e-19)
(0.193991 -0.0196362 2.9196e-17)
(0.161318 -0.0185071 4.73211e-17)
(0.119769 -0.0156987 3.9801e-17)
(0.103874 -0.0149875 -4.86044e-19)
(0.0537873 -0.0108275 2.09015e-19)
(0.447278 -0.0627191 7.78647e-19)
(0.456065 -0.104255 5.9187e-18)
(0.469688 -0.149829 5.4926e-18)
(0.48978 -0.197954 -1.16905e-17)
(0.515827 -0.245171 -3.1266e-17)
(0.548577 -0.291035 9.26297e-18)
(0.587662 -0.333348 1.63506e-17)
(0.630952 -0.369059 3.3332e-17)
(0.676195 -0.396423 9.49918e-18)
(0.721545 -0.414849 -8.03518e-18)
(0.76464 -0.423873 1.45109e-18)
(0.803159 -0.423689 -9.52518e-19)
(0.835545 -0.415119 0)
(0.860348 -0.399131 5.96125e-19)
(0.876781 -0.377266 1.67217e-18)
(0.884597 -0.351013 -1.4789e-18)
(0.884154 -0.322023 1.42249e-18)
(0.876291 -0.291747 0)
(0.862293 -0.261484 -4.32029e-18)
(0.843402 -0.23199 9.8875e-18)
(0.820836 -0.203829 0)
(0.795417 -0.177047 -1.00481e-17)
(0.767491 -0.151582 0)
(0.736474 -0.126923 6.42414e-19)
(0.700879 -0.10295 -6.03387e-19)
(0.661001 -0.0803718 9.22547e-18)
(0.61767 -0.0597197 1.38344e-19)
(0.57187 -0.0414075 1.30474e-19)
(0.524508 -0.0256874 -5.9254e-20)
(0.476697 -0.0126182 3.51926e-18)
(0.429066 -0.00215884 6.20566e-18)
(0.382908 0.00580286 -1.06278e-17)
(0.337862 0.0116305 -3.08501e-19)
(0.296478 0.0153575 5.47504e-20)
(0.254724 0.0176816 0)
(0.221466 0.0184746 -3.50377e-19)
(0.179168 0.0182223 -3.86612e-17)
(0.160607 0.018064 -2.68366e-20)
(0.104769 0.0168976 -2.68815e-17)
(0.490383 -0.0169658 3.84593e-19)
(0.488606 0.0225458 2.94863e-18)
(0.490186 0.0662075 0)
(0.49638 0.111509 1.38299e-19)
(0.506916 0.156215 -1.15337e-17)
(0.522583 0.201586 0)
(0.543504 0.245769 8.84152e-18)
(0.569397 0.287483 -4.62991e-17)
(0.600287 0.326256 4.86311e-17)
(0.635694 0.360911 -1.53027e-17)
(0.675008 0.390556 -1.16764e-17)
(0.717513 0.414403 -2.40641e-17)
(0.762086 0.431558 -1.1357e-17)
(0.807414 0.441362 -6.2326e-18)
(0.851864 0.443228 -2.03209e-19)
(0.893595 0.43688 1.76334e-18)
(0.930459 0.422179 4.69608e-18)
(0.960326 0.399548 6.24809e-18)
(0.980871 0.369505 -5.90732e-18)
(0.990148 0.33334 -2.32955e-17)
(0.986339 0.292374 0)
(0.968499 0.24873 6.5602e-19)
(0.936761 0.204555 1.23753e-17)
(0.892456 0.162123 1.36219e-17)
(0.838997 0.123671 -7.60304e-19)
(0.780099 0.0900642 -5.76454e-18)
(0.717504 0.0613598 4.2006e-20)
(0.653008 0.0375265 -2.85955e-18)
(0.587969 0.0183415 2.88161e-19)
(0.523793 0.00342897 -3.18527e-17)
(0.461094 -0.007605 -2.62849e-20)
(0.401502 -0.0151887 -4.01348e-19)
(0.344253 -0.0199379 -2.1385e-17)
(0.292728 -0.0221337 -1.25662e-19)
(0.241517 -0.0225608 -3.03128e-17)
(0.201848 -0.0215542 -9.89159e-17)
(0.152465 -0.0188734 4.12409e-17)
(0.131542 -0.0178658 3.07719e-17)
(0.0726369 -0.0131484 -5.49967e-17)
(0.495098 -0.0549773 -2.93694e-18)
(0.502859 -0.0926962 -8.74409e-18)
(0.514831 -0.134272 -5.19333e-18)
(0.532572 -0.178391 -1.05431e-17)
(0.555542 -0.221831 2.07137e-17)
(0.584501 -0.264455 -7.48718e-19)
(0.619265 -0.304453 -4.55011e-17)
(0.658067 -0.339159 -1.10026e-17)
(0.699119 -0.367052 1.07535e-18)
(0.741118 -0.38778 0)
(0.782342 -0.400923 -5.66665e-18)
(0.820973 -0.406445 4.03353e-18)
(0.855772 -0.404775 -2.30055e-18)
(0.88543 -0.396381 -3.13738e-19)
(0.908889 -0.382089 -4.86555e-19)
(0.925391 -0.36279 -4.63721e-19)
(0.934582 -0.339621 -5.33875e-18)
(0.936497 -0.313717 1.54517e-18)
(0.931691 -0.286271 4.2349e-18)
(0.920878 -0.258142 0)
(0.904977 -0.230111 9.16575e-18)
(0.884711 -0.202503 8.66902e-18)
(0.860516 -0.175536 -7.66171e-20)
(0.832032 -0.148959 1.18941e-18)
(0.797988 -0.122774 6.10184e-19)
(0.75858 -0.0977132 -9.8156e-18)
(0.71446 -0.0743722 2.78523e-19)
(0.666597 -0.0532704 -2.33811e-18)
(0.615914 -0.034798 -5.41161e-19)
(0.563711 -0.0191331 -3.49028e-18)
(0.510743 -0.00632656 -4.4022e-20)
(0.458631 0.00364023 2.29106e-17)
(0.407066 0.0111605 1.9117e-17)
(0.359124 0.0161317 1.71161e-17)
(0.310375 0.0195053 4.54939e-19)
(0.270907 0.0207917 -2.00044e-19)
(0.221239 0.0211364 4.08832e-17)
(0.197871 0.0208612 3.15889e-17)
(0.133112 0.0198349 2.80044e-17)
(0.532812 -0.0135122 -1.42249e-18)
(0.531249 0.0225789 -1.52754e-18)
(0.532643 0.0625397 -1.10096e-17)
(0.53818 0.103976 4.50502e-17)
(0.547518 0.144765 -2.1406e-17)
(0.561385 0.186284 1.99233e-17)
(0.579907 0.226845 -3.88154e-17)
(0.602841 0.265326 0)
(0.630293 0.301485 -1.56791e-17)
(0.661947 0.334304 1.0987e-18)
(0.697407 0.363052 1.12177e-17)
(0.736247 0.387124 2.285e-17)
(0.777696 0.405723 4.57532e-18)
(0.82082 0.418218 0)
(0.864417 0.423999 0)
(0.907011 0.422627 0)
(0.946791 0.413763 0)
(0.981805 0.397452 -6.16909e-18)
(1.00978 0.37384 8.2648e-18)
(1.02853 0.343695 9.88887e-18)
(1.03579 0.307912 -8.84369e-18)
(1.02982 0.268123 8.99521e-18)
(1.00974 0.226196 -1.00377e-17)
(0.975777 0.184262 -7.35727e-19)
(0.930207 0.144681 -3.72273e-19)
(0.876198 0.108738 6.11465e-18)
(0.815557 0.076989 1.32723e-18)
(0.750402 0.0498194 0)
(0.682453 0.0273361 0)
(0.613601 0.00937647 1.57034e-19)
(0.544813 -0.00432074 0)
(0.478231 -0.0140815 2.53362e-17)
(0.41328 -0.020567 -2.25773e-17)
(0.353962 -0.0239312 -3.67983e-17)
(0.294597 -0.0252567 6.25704e-17)
(0.247591 -0.0245215 5.20182e-17)
(0.190023 -0.0221667 -4.31679e-17)
(0.163419 -0.0208607 -6.52009e-17)
(0.0952885 -0.0157064 5.82429e-17)
(0.536993 -0.0482776 0)
(0.543869 -0.0827059 2.88871e-18)
(0.554452 -0.120801 1.08855e-17)
(0.570217 -0.161367 -4.06271e-17)
(0.590596 -0.201373 2.85333e-17)
(0.616339 -0.240879 -1.76796e-17)
(0.647331 -0.278352 1.17892e-18)
(0.682054 -0.311378 1.30261e-17)
(0.718987 -0.338623 1.00097e-17)
(0.75719 -0.359941 0)
(0.795392 -0.375043 2.53381e-18)
(0.832223 -0.383865 -6.42899e-18)
(0.866834 -0.386713 5.77392e-18)
(0.898257 -0.383854 3.38912e-19)
(0.925535 -0.375688 5.36378e-19)
(0.947822 -0.362678 1.6335e-18)
(0.964423 -0.345473 2.53726e-18)
(0.974847 -0.324799 0)
(0.978998 -0.301527 0)
(0.976994 -0.276395 0)
(0.969241 -0.250183 -9.04092e-18)
(0.956138 -0.223337 0)
(0.937959 -0.196258 7.96195e-18)
(0.914435 -0.168943 1.14053e-18)
(0.884421 -0.14153 9.21216e-18)
(0.84798 -0.11479 9.24847e-18)
(0.805531 -0.089388 0)
(0.757939 -0.0659364 2.09718e-18)
(0.706046 -0.04497 6.08448e-19)
(0.651271 -0.0268094 -1.12625e-19)
(0.594442 -0.0116279 -1.29178e-17)
(0.537511 0.0004569 -8.07016e-20)
(0.480209 0.0098446 -2.00643e-17)
(0.426204 0.0162419 1.72759e-17)
(0.370689 0.0208759 0)
(0.325018 0.0227985 3.79256e-19)
(0.267902 0.0239483 -4.83218e-19)
(0.239348 0.0235812 -3.33124e-17)
(0.165562 0.0228697 2.32958e-19)
(0.570326 -0.010561 1.34401e-18)
(0.568979 0.0225697 0)
(0.570265 0.0593124 2.05929e-17)
(0.575302 0.0973708 -2.17421e-17)
(0.583691 0.13472 1.04861e-17)
(0.596109 0.172804 -1.99125e-17)
(0.612661 0.210049 1.89389e-17)
(0.633111 0.245475 1.64603e-17)
(0.657604 0.278973 0)
(0.68591 0.309656 1.13675e-17)
(0.717751 0.336935 8.82722e-18)
(0.752892 0.360341 -8.465e-18)
(0.790798 0.379188 -1.79716e-17)
(0.830833 0.392927 -2.95883e-18)
(0.872136 0.401005 7.01747e-18)
(0.913594 0.402951 1.04999e-18)
(0.953803 0.398373 9.06442e-19)
(0.991148 0.387123 2.28196e-18)
(1.02366 0.36914 -1.38589e-18)
(1.04925 0.344807 2.31783e-18)
(1.06559 0.314645 6.6379e-18)
(1.07054 0.279768 1.245e-18)
(1.06243 0.241634 -1.44264e-18)
(1.04043 0.202003 -9.80436e-18)
(1.0055 0.163073 0)
(0.959822 0.12632 -5.43484e-18)
(0.904812 0.0926784 -2.62448e-18)
(0.842538 0.0629243 -2.43198e-18)
(0.774813 0.037544 -8.98231e-18)
(0.703892 0.0166646 3.3347e-17)
(0.631039 0.000237957 1.37061e-17)
(0.558933 -0.0118816 2.23733e-19)
(0.487223 -0.0203515 1.36031e-19)
(0.420622 -0.0251328 0)
(0.353265 -0.0276155 -3.26762e-17)
(0.29877 -0.0273277 0)
(0.232758 -0.0255196 0)
(0.199907 -0.0239391 3.44799e-17)
(0.122114 -0.0185168 -4.81091e-19)
(0.574034 -0.0425244 -3.95602e-18)
(0.580151 -0.0741164 1.03823e-17)
(0.589564 -0.109192 5.47665e-19)
(0.603667 -0.146642 1.05529e-17)
(0.621878 -0.183605 -2.69562e-17)
(0.644916 -0.220273 1.51903e-17)
(0.672701 -0.255322 -1.50676e-18)
(0.703877 -0.286483 -1.21633e-17)
(0.737093 -0.312583 -9.99691e-18)
(0.771625 -0.333612 -8.32624e-18)
(0.80649 -0.349378 -1.1736e-17)
(0.84063 -0.359864 0)
(0.873523 -0.365372 -2.58739e-18)
(0.904553 -0.366125 3.46314e-19)
(0.933011 -0.362336 0)
(0.958212 -0.354251 7.28737e-19)
(0.979455 -0.342186 5.11838e-19)
(0.99605 -0.326525 1.08129e-18)
(1.00753 -0.307801 -6.05482e-18)
(1.01354 -0.286507 -7.04215e-18)
(1.014 -0.263256 1.06764e-18)
(1.00886 -0.23846 -8.21434e-18)
(0.998103 -0.212566 -2.6503e-18)
(0.98135 -0.18572 1.08503e-18)
(0.957469 -0.158172 -8.59528e-18)
(0.926312 -0.130709 -5.45138e-19)
(0.887981 -0.104047 0)
(0.843139 -0.0788672 0)
(0.792423 -0.0558423 1.19823e-19)
(0.737266 -0.0354406 -3.33318e-19)
(0.678462 -0.0179783 1.32501e-17)
(0.618267 -0.00375033 -1.01277e-19)
(0.556394 0.00762545 -2.09993e-17)
(0.497167 0.0156038 -1.78384e-17)
(0.435389 0.0217015 -4.65645e-19)
(0.383751 0.0244114 3.73614e-20)
(0.319251 0.0265852 -8.8212e-17)
(0.285269 0.0261724 3.45938e-17)
(0.202378 0.0259895 -2.43149e-19)
(0.603757 -0.00805417 6.22561e-19)
(0.602615 0.0224989 0)
(0.603844 0.0564233 -1.01892e-17)
(0.608494 0.0915224 0)
(0.616123 0.125859 1.88852e-17)
(0.627362 0.160898 -1.86809e-17)
(0.642289 0.195172 -1.70596e-17)
(0.660671 0.227811 -1.60296e-17)
(0.682659 0.258792 0)
(0.708068 0.287329 1.17333e-17)
(0.736692 0.312948 -9.01576e-18)
(0.768411 0.335275 1.51167e-17)
(0.802837 0.353731 6.38278e-18)
(0.839533 0.367844 4.62159e-18)
(0.877889 0.377121 -4.16792e-18)
(0.917083 0.381117 -1.04013e-18)
(0.956056 0.379463 -1.76077e-18)
(0.993554 0.371937 -3.40074e-18)
(1.028 0.358406 0)
(1.05762 0.339024 2.08658e-18)
(1.08033 0.314086 -4.37263e-18)
(1.09396 0.284287 9.88082e-19)
(1.09648 0.250676 -1.13113e-19)
(1.08635 0.214558 2.36671e-17)
(1.06325 0.177757 -1.35251e-18)
(1.02824 0.141686 8.46502e-19)
(0.981955 0.107458 2.55195e-18)
(0.925985 0.0761195 2.73436e-18)
(0.861868 0.0485039 8.202e-18)
(0.791962 0.0250585 -1.64773e-17)
(0.717642 0.0060054 -1.34823e-17)
(0.642069 -0.00854479 -5.3254e-17)
(0.565078 -0.0191879 4.65747e-17)
(0.492163 -0.0256152 -6.44223e-19)
(0.41732 -0.0295168 3.40139e-17)
(0.355461 -0.0298749 -1.29024e-18)
(0.280902 -0.0288549 7.65301e-19)
(0.241372 -0.0270521 -5.44311e-19)
(0.153479 -0.0215844 6.41237e-17)
(0.607048 -0.0375669 2.52297e-18)
(0.612514 -0.0666971 -5.32432e-18)
(0.620933 -0.0991347 9.66299e-18)
(0.633622 -0.133852 0)
(0.650008 -0.168118 1.76012e-17)
(0.670759 -0.202253 0)
(0.695834 -0.235053 0)
(0.723977 -0.264385 0)
(0.753958 -0.289189 1.81127e-17)
(0.785184 -0.30954 -6.52183e-18)
(0.816842 -0.325297 6.47366e-18)
(0.848077 -0.336486 0)
(0.878591 -0.343433 0)
(0.908023 -0.346382 -1.50709e-18)
(0.935917 -0.345482 0)
(0.961828 -0.340894 -7.21601e-19)
(0.98522 -0.332769 -3.78245e-19)
(1.00545 -0.321286 0)
(1.02196 -0.306717 4.43928e-18)
(1.03417 -0.289325 8.47709e-18)
(1.04166 -0.269503 7.11456e-18)
(1.04405 -0.247534 8.25377e-18)
(1.04095 -0.223781 -1.66812e-17)
(1.03182 -0.198433 0)
(1.01541 -0.171789 -7.90486e-18)
(0.991304 -0.144589 -8.96166e-18)
(0.959201 -0.117564 -4.13624e-18)
(0.919462 -0.0914214 0)
(0.872373 -0.0669354 4.72921e-19)
(0.819253 -0.0447092 3.53251e-18)
(0.760697 -0.0252035 -1.30859e-17)
(0.699198 -0.0089206 -1.25904e-19)
(0.634336 0.00448441 2.05461e-17)
(0.571129 0.014151 -1.72582e-17)
(0.503922 0.0218933 -4.117e-20)
(0.44685 0.0255406 -4.43671e-19)
(0.375235 0.0289628 9.13731e-17)
(0.335775 0.0285713 -3.54788e-17)
(0.243763 0.029169 -6.33748e-17)
(0.633743 -0.00592463 6.21101e-19)
(0.632794 0.0223605 -2.44135e-18)
(0.633997 0.0537956 0)
(0.638344 0.086275 -1.85418e-17)
(0.645358 0.117953 0)
(0.655625 0.150286 0)
(0.669205 0.18191 9.93842e-19)
(0.685848 0.212034 -1.32348e-17)
(0.705721 0.240693 -2.44288e-17)
(0.728648 0.267188 -4.30146e-17)
(0.754471 0.291139 -1.75068e-17)
(0.783136 0.312248 -1.41506e-17)
(0.814357 0.33001 0)
(0.847827 0.344014 -1.09907e-17)
(0.883099 0.353837 3.04631e-18)
(0.919558 0.359055 0)
(0.956403 0.359337 4.2351e-19)
(0.992675 0.354437 3.37621e-18)
(1.02715 0.344223 0)
(1.05844 0.328745 6.29448e-18)
(1.08483 0.308197 -7.63979e-18)
(1.10441 0.283011 0)
(1.1152 0.25393 -1.26828e-18)
(1.11535 0.221848 -2.16317e-20)
(1.10367 0.188136 6.29104e-19)
(1.08019 0.153958 1.01993e-17)
(1.0446 0.120402 -4.14454e-20)
(0.997714 0.0885961 -2.91044e-19)
(0.940406 0.0596154 -2.6407e-19)
(0.874781 0.0341822 5.15852e-19)
(0.802013 0.0128036 1.46372e-17)
(0.725582 -0.00410077 5.19161e-17)
(0.645355 -0.0170107 5.44508e-19)
(0.567639 -0.0252663 -4.006e-17)
(0.486255 -0.0308346 -3.35388e-17)
(0.417527 -0.0320506 -5.79313e-17)
(0.334545 -0.0320786 -4.88475e-17)
(0.288115 -0.0301348 1.20327e-18)
(0.189721 -0.0249033 -6.66231e-17)
(0.636663 -0.0332813 -4.97083e-18)
(0.641566 -0.0602467 -1.41492e-17)
(0.649137 -0.0903591 2.62046e-17)
(0.660618 -0.122652 0)
(0.675454 -0.154526 3.15643e-17)
(0.694257 -0.186386 0)
(0.717025 -0.217127 -1.08305e-17)
(0.742578 -0.244735 3.91744e-17)
(0.769774 -0.268239 -2.54471e-17)
(0.798107 -0.287752 0)
(0.826871 -0.303178 1.11684e-17)
(0.855338 -0.314558 8.54877e-18)
(0.883333 -0.322238 0)
(0.91067 -0.326475 -3.88912e-18)
(0.937079 -0.327403 1.54444e-19)
(0.962323 -0.325173 -1.49193e-19)
(0.986063 -0.319864 -5.09093e-19)
(1.00782 -0.311558 -1.78065e-18)
(1.02711 -0.300375 -3.43399e-19)
(1.04336 -0.286427 -4.30143e-18)
(1.05601 -0.26992 -2.41794e-18)
(1.06452 -0.250993 1.7195e-18)
(1.06825 -0.229869 8.05445e-18)
(1.06649 -0.206706 -7.85029e-18)
(1.05791 -0.181776 7.36429e-18)
(1.04176 -0.155713 9.41652e-18)
(1.01731 -0.129203 4.13162e-18)
(0.984573 -0.10292 6.16548e-20)
(0.94333 -0.0776854 -5.3347e-19)