/*--------------------------------*- C++ -*----------------------------------*\
  =========                 |
  \\      /  F ield         | OpenFOAM: The Open Source CFD Toolbox
   \\    /   O peration     | Website:  https://openfoam.org
    \\  /    A nd           | Version:  6
     \\/     M anipulation  |
\*---------------------------------------------------------------------------*/
FoamFile
{
    version     2.0;
    format      ascii;
    class       volVectorField;
    location    "950";
    object      U;
}
// * * * * * * * * * * * * * * * * * * * * * * * * * * * * * * * * * * * * * //

dimensions      [0 1 -1 0 0 0 0];

internalField   nonuniform List<vector> 
10720
(
(0.013251 -0.0159501 -8.29743e-19)
(0.0137826 0.0106572 8.45228e-19)
(0.0185273 0.0379301 0)
(0.0270502 0.0631057 8.16808e-18)
(0.0392135 0.0852769 -9.65001e-18)
(0.0540478 0.102853 -5.75676e-18)
(0.0696091 0.114378 -5.22353e-18)
(0.0848893 0.12061 0)
(0.0986825 0.121665 0)
(0.10991 0.118346 0)
(0.118507 0.112021 -3.22257e-21)
(0.124267 0.103476 0)
(0.127301 0.0935789 -2.7789e-18)
(0.127983 0.083042 0)
(0.126458 0.0722647 0)
(0.123061 0.061687 0)
(0.118024 0.0515144 -6.61461e-18)
(0.11161 0.0420171 -1.1669e-17)
(0.104043 0.0333041 1.14745e-17)
(0.0956219 0.025566 0)
(0.086601 0.0188533 1.06281e-17)
(0.0773068 0.013296 -2.06195e-17)
(0.0681685 0.00887502 1.00492e-17)
(0.0594998 0.00557285 -2.79811e-19)
(0.0518741 0.00326978 0)
(0.0453652 0.00161466 3.60418e-18)
(0.0395414 0.000369271 5.15718e-20)
(0.0342503 -0.000531977 -1.43468e-18)
(0.0294509 -0.00115009 -5.00785e-18)
(0.0251063 -0.00154066 -1.72262e-17)
(0.021161 -0.00174127 7.33028e-18)
(0.0176602 -0.00180129 1.27662e-17)
(0.0144503 -0.0017376 1.06155e-17)
(0.0117814 -0.00162093 3.5629e-17)
(0.00907811 -0.00139179 -1.46903e-17)
(0.00737744 -0.00125242 -9.95086e-20)
(0.00464722 -0.000851542 7.07395e-20)
(0.00444576 -0.000911207 2.95925e-17)
(0.000881047 -0.000641122 -2.63351e-17)
(0.0162926 -0.0416206 -4.08875e-19)
(0.0230014 -0.0673198 -8.08648e-19)
(0.0349133 -0.0939416 1.57743e-18)
(0.0512661 -0.117208 -3.13695e-18)
(0.0716263 -0.135761 -5.71241e-18)
(0.0944639 -0.147223 4.6487e-18)
(0.116336 -0.148918 1.08473e-17)
(0.133144 -0.140822 2.38238e-18)
(0.143346 -0.1265 0)
(0.146921 -0.10888 0)
(0.144107 -0.0903822 1.06184e-18)
(0.137149 -0.0736014 -1.63214e-19)
(0.128243 -0.0594543 6.50791e-19)
(0.118475 -0.0478983 -1.19398e-18)
(0.108947 -0.0388568 -3.2759e-18)
(0.10022 -0.031793 -2.72671e-18)
(0.0923565 -0.0262751 -4.36369e-18)
(0.0854403 -0.0219215 -3.49328e-18)
(0.0794046 -0.0184501 0)
(0.0741303 -0.0155837 0)
(0.0694559 -0.0131543 7.62243e-18)
(0.065227 -0.0109911 4.69686e-19)
(0.06124 -0.00896897 -7.47493e-18)
(0.057138 -0.00694163 6.69631e-18)
(0.0525534 -0.00498964 1.51665e-20)
(0.0477792 -0.00331267 0)
(0.0430771 -0.00193111 -2.67286e-18)
(0.0385259 -0.000826301 0)
(0.0341906 2.80988e-05 0)
(0.0301139 0.000661952 -1.91632e-18)
(0.026305 0.00110283 0)
(0.0228176 0.00138522 5.93001e-18)
(0.0195679 0.00153143 9.95428e-18)
(0.0167434 0.00158767 4.25459e-17)
(0.0139111 0.00153402 -1.43688e-17)
(0.011911 0.0014977 4.88031e-20)
(0.00898554 0.00126142 0)
(0.00840553 0.00133302 -1.5155e-17)
(0.00412579 0.0012016 -1.34893e-17)
(0.0817899 -0.0302 -6.76029e-19)
(0.0814055 0.0184073 9.0888e-19)
(0.0875123 0.0695993 0)
(0.100305 0.119675 0)
(0.119886 0.166016 3.68615e-18)
(0.145515 0.206467 6.8882e-18)
(0.174913 0.238187 0)
(0.206232 0.260492 0)
(0.237269 0.272792 -9.0478e-18)
(0.265655 0.275508 0)
(0.290138 0.270085 -1.63196e-17)
(0.309507 0.257816 0)
(0.323173 0.240365 -1.2335e-18)
(0.331169 0.219319 1.18171e-18)
(0.333446 0.195903 1.54388e-18)
(0.330381 0.17137 -7.32981e-18)
(0.322318 0.146533 1.10724e-17)
(0.309822 0.122349 1.30603e-17)
(0.293386 0.0993538 1.46393e-17)
(0.273739 0.0782546 1.01624e-18)
(0.251575 0.0593923 -1.67936e-17)
(0.227791 0.043281 1.64319e-17)
(0.203571 0.0300483 -8.99697e-19)
(0.179915 0.0197895 0)
(0.158407 0.0123186 0)
(0.139516 0.00682513 0)
(0.12238 0.00266588 6.23717e-19)
(0.106671 -0.000399227 -1.35479e-19)
(0.0922887 -0.00256441 7.88407e-18)
(0.0791627 -0.00399742 3.72184e-20)
(0.0671592 -0.00481893 -2.7961e-20)
(0.0564208 -0.0051721 -1.90608e-19)
(0.0465376 -0.00512643 1.65288e-17)
(0.03821 -0.00486723 -2.75658e-17)
(0.0298536 -0.00427853 -1.70633e-19)
(0.0243542 -0.00386906 -3.70864e-17)
(0.0160351 -0.00276608 0)
(0.0148585 -0.00286279 -2.31428e-17)
(0.00412504 -0.00201747 -4.08884e-17)
(0.0876 -0.076913 8.94575e-19)
(0.0990622 -0.123816 -1.73626e-18)
(0.118478 -0.17281 -1.35593e-17)
(0.145872 -0.219543 1.37777e-17)
(0.180715 -0.260056 0)
(0.221404 -0.290553 -9.84461e-18)
(0.263699 -0.306541 -3.52777e-18)
(0.30156 -0.305902 -1.99629e-17)
(0.330753 -0.291082 5.96477e-18)
(0.348999 -0.265587 -2.40866e-18)
(0.354999 -0.233654 2.8369e-18)
(0.350563 -0.200283 -4.61231e-19)
(0.338875 -0.168785 0)
(0.3223 -0.140698 9.26359e-19)
(0.303481 -0.116976 5.83383e-19)
(0.284323 -0.0973482 3.93956e-18)
(0.265763 -0.0813565 0)
(0.248467 -0.068325 0)
(0.232726 -0.0577044 7.47877e-19)
(0.21851 -0.0488422 -6.95434e-19)
(0.205602 -0.0412991 1.05593e-17)
(0.193705 -0.0346128 1.37707e-18)
(0.182377 -0.0284479 -6.49432e-19)
(0.170761 -0.022392 -1.01223e-17)
(0.157944 -0.0165714 9.9178e-18)
(0.144497 -0.011457 8.62716e-18)
(0.131056 -0.00715046 0)
(0.117887 -0.00364134 0)
(0.105199 -0.000873389 0)
(0.0931481 0.00122716 8.8339e-21)
(0.0817874 0.00273525 0)
(0.0712972 0.00374369 0)
(0.0614628 0.00432667 -3.12591e-17)
(0.0528277 0.00459994 -2.6586e-17)
(0.0441913 0.00454857 2.24491e-17)
(0.0379204 0.00447445 -1.84664e-17)
(0.0290748 0.0038776 3.07666e-17)
(0.0268493 0.0040266 2.38436e-17)
(0.0141524 0.00363851 2.08338e-17)
(0.165489 -0.034787 -2.27751e-19)
(0.164113 0.0213016 -4.55745e-18)
(0.169387 0.0812638 3.67221e-18)
(0.182069 0.141491 3.57092e-18)
(0.202426 0.198865 6.77141e-18)
(0.23033 0.25179 -1.93527e-17)
(0.264125 0.296957 1.25999e-17)
(0.302065 0.332623 1.05205e-17)
(0.341959 0.357448 8.15883e-19)
(0.381125 0.370871 8.08952e-18)
(0.417513 0.373451 -4.93423e-18)
(0.449125 0.366019 7.56576e-18)
(0.474423 0.350017 1.53185e-18)
(0.49262 0.327164 0)
(0.503027 0.299025 -1.53588e-18)
(0.505536 0.26735 7.24931e-18)
(0.500177 0.233517 0)
(0.487464 0.199115 -2.53212e-17)
(0.467825 0.165184 -1.45457e-17)
(0.442208 0.133039 1.99564e-18)
(0.411536 0.103449 -1.86413e-18)
(0.377184 0.077435 -9.77643e-19)
(0.340927 0.0554533 -1.3788e-17)
(0.304473 0.0378594 6.90635e-18)
(0.270345 0.024594 0)
(0.239617 0.0146251 5.77278e-18)
(0.211364 0.00700397 -6.50851e-19)
(0.185221 0.00130077 0)
(0.161077 -0.0028177 8.08311e-18)
(0.138877 -0.0056348 1.43119e-17)
(0.118444 -0.00736109 -2.44488e-17)
(0.100037 -0.0082318 -2.03889e-17)
(0.0830337 -0.00838718 -3.21488e-19)
(0.0685563 -0.0081048 -2.89263e-17)
(0.0541202 -0.00727202 -2.44454e-17)
(0.0442971 -0.00661511 3.92185e-17)
(0.030079 -0.00490765 0)
(0.0273106 -0.00497529 -2.43141e-17)
(0.00921136 -0.00349235 8.6249e-17)
(0.172375 -0.0886024 -8.5773e-19)
(0.185048 -0.1426 -1.6336e-18)
(0.205882 -0.19973 7.08647e-18)
(0.235717 -0.256448 0)
(0.274056 -0.308078 5.92725e-18)
(0.320054 -0.351091 0)
(0.370307 -0.380655 1.77189e-17)
(0.419032 -0.393161 7.91312e-18)
(0.461206 -0.388922 6.09434e-18)
(0.493095 -0.369909 0)
(0.511791 -0.339637 -4.1086e-18)
(0.517292 -0.303188 -1.86919e-20)
(0.51171 -0.264906 -6.87253e-19)
(0.497295 -0.227736 0)
(0.477151 -0.193999 2.97355e-18)
(0.45399 -0.164445 1.05528e-18)
(0.42968 -0.139241 -6.62502e-18)
(0.405652 -0.117996 -4.24839e-18)
(0.382799 -0.100219 -1.5165e-18)
(0.361429 -0.0851507 6.55371e-19)
(0.34154 -0.0722097 -1.09636e-17)
(0.322883 -0.0607435 0)
(0.304918 -0.0502447 0)
(0.28648 -0.0400817 7.90279e-20)
(0.266245 -0.0303292 0)
(0.244859 -0.0216182 -1.87377e-17)
(0.223211 -0.0141551 2.65212e-19)
(0.201765 -0.0079734 1.93244e-18)
(0.18089 -0.00301696 0)
(0.160886 0.00081555 3.10865e-18)
(0.141874 0.00363475 -5.45791e-18)
(0.124188 0.00558105 0)
(0.107515 0.00678661 1.6423e-17)
(0.0927538 0.00741441 0)
(0.0780085 0.00749986 0)
(0.0670744 0.00744081 3.39311e-20)
(0.0520617 0.00660455 -1.64491e-19)
(0.0476603 0.00677976 -2.49967e-17)
(0.0264864 0.00613376 -4.38526e-17)
(0.24804 -0.0337113 -8.6639e-19)
(0.246116 0.022214 -1.74225e-18)
(0.250207 0.0826956 3.4649e-18)
(0.261436 0.14441 3.31634e-18)
(0.280032 0.204329 0)
(0.306383 0.261732 0)
(0.339571 0.313469 2.27382e-17)
(0.378295 0.357398 -2.15711e-17)
(0.420903 0.391921 0)
(0.465058 0.415698 1.47235e-17)
(0.508568 0.42833 1.11308e-17)
(0.549148 0.429846 7.97615e-18)
(0.584623 0.420896 -4.23213e-18)
(0.613405 0.402701 -1.85903e-18)
(0.634019 0.376572 0)
(0.645631 0.344302 3.40729e-18)
(0.647564 0.307421 1.80663e-18)
(0.639854 0.267905 2.31321e-17)
(0.622554 0.227203 1.79352e-18)
(0.596455 0.187188 -1.69226e-18)
(0.562449 0.14911 1.67656e-17)
(0.52212 0.114551 -2.77758e-18)
(0.477639 0.0844466 1.56166e-17)
(0.431309 0.0595514 6.80918e-18)
(0.386489 0.0401295 -4.00182e-19)
(0.345004 0.0251759 -5.5373e-18)
(0.306211 0.0135872 4.08863e-20)
(0.269882 0.00477574 -3.76604e-20)
(0.23598 -0.00171797 -8.38373e-18)
(0.204536 -0.00628658 -2.22226e-19)
(0.175379 -0.00923154 1.32424e-17)
(0.148916 -0.0108735 -2.2261e-17)
(0.124358 -0.0114418 -1.77756e-17)
(0.103238 -0.0112784 -1.87564e-19)
(0.0822726 -0.0103408 2.55214e-17)
(0.0675754 -0.00946954 0)
(0.0471111 -0.00727717 3.41504e-17)
(0.0421006 -0.00724092 2.58052e-17)
(0.0164144 -0.00508232 -4.55843e-17)
(0.255004 -0.087349 -8.16367e-19)
(0.267268 -0.14108 3.46334e-18)
(0.286969 -0.198618 9.87711e-18)
(0.315457 -0.257245 0)
(0.352266 -0.312405 -5.95329e-18)
(0.397295 -0.361501 0)
(0.448259 -0.400215 -1.76479e-17)
(0.500479 -0.424417 1.01578e-18)
(0.549306 -0.432865 6.28921e-18)
(0.590776 -0.425959 3.03992e-18)
(0.621198 -0.405597 -4.95738e-19)
(0.638865 -0.37549 3.33121e-18)
(0.644193 -0.339579 1.34706e-18)
(0.638308 -0.301195 -2.94318e-19)
(0.623672 -0.26349 -3.09093e-18)
(0.602934 -0.228242 -5.26384e-18)
(0.578418 -0.196526 6.19959e-18)
(0.552148 -0.168641 2.27441e-19)
(0.525636 -0.14451 0)
(0.499712 -0.123576 -1.12482e-17)
(0.474777 -0.105323 -7.31136e-19)
(0.450808 -0.0890473 1.17917e-17)
(0.427331 -0.074162 0)
(0.4031 -0.0598945 1.0063e-19)
(0.376509 -0.046214 0)
(0.34817 -0.0338233 9.41141e-18)
(0.319088 -0.0230298 0)
(0.289921 -0.0139424 -2.02537e-18)
(0.261199 -0.00653693 8.38538e-20)
(0.233401 -0.000706917 -5.09243e-20)
(0.206742 0.00367794 5.51285e-18)
(0.18174 0.00678974 1.58784e-19)
(0.158017 0.00882331 0)
(0.136842 0.00996076 -1.43617e-17)
(0.115688 0.0103383 -2.00972e-19)
(0.0996967 0.0103581 2.02658e-17)
(0.0782532 0.00942506 -6.80628e-17)
(0.071131 0.00957049 -1.12482e-19)
(0.0414154 0.00869152 0)
(0.3219 -0.0299825 -1.25507e-18)
(0.319775 0.0224372 -1.66774e-18)
(0.322874 0.079615 6.67346e-18)
(0.332491 0.138506 -2.72773e-17)
(0.348734 0.196326 6.66772e-18)
(0.372277 0.253165 1.20837e-17)
(0.402746 0.306239 -1.16016e-17)
(0.439266 0.353494 0)
(0.480837 0.393494 -2.58125e-17)
(0.525701 0.424564 -6.63345e-18)
(0.571981 0.44574 0)
(0.617572 0.456403 -7.61481e-18)
(0.66019 0.456405 1.75994e-18)
(0.697793 0.446199 -4.53217e-18)
(0.72836 0.42649 0)
(0.750299 0.39861 -5.09301e-18)
(0.762185 0.363875 7.33725e-18)
(0.763282 0.324228 -8.62097e-19)
(0.752991 0.281267 0)
(0.73156 0.237161 1.50673e-17)
(0.699505 0.193578 -1.6249e-17)
(0.658261 0.152598 -9.2651e-19)
(0.610048 0.115678 -1.41757e-17)
(0.557556 0.0840869 -1.29914e-17)
(0.504769 0.0585666 0)
(0.454316 0.0383788 0)
(0.406104 0.02245 -1.34554e-18)
(0.360243 0.0101234 -1.48755e-19)
(0.316883 0.000855591 8.72197e-18)
(0.276239 -0.00583261 -2.29693e-19)
(0.238209 -0.0103234 2.1111e-19)
(0.203391 -0.0130103 2.25236e-17)
(0.170894 -0.0142245 0)
(0.14266 -0.014344 6.42963e-17)
(0.114713 -0.0134581 -2.19166e-19)
(0.0945765 -0.0124221 0)
(0.0674875 -0.00987562 -5.83259e-20)
(0.0595541 -0.00966694 0)
(0.0260304 -0.00681891 4.76536e-17)
(0.328439 -0.080252 1.61679e-18)
(0.339631 -0.130513 -6.55145e-18)
(0.357323 -0.184883 6.22159e-18)
(0.383115 -0.241258 5.57812e-18)
(0.416537 -0.295449 -2.31495e-17)
(0.457979 -0.345816 -1.95583e-17)
(0.50609 -0.388838 1.82445e-17)
(0.557301 -0.420538 -1.44048e-17)
(0.607807 -0.439027 -4.83387e-18)
(0.654199 -0.443834 -3.41034e-18)
(0.692825 -0.435459 5.21932e-18)
(0.721102 -0.415983 -2.0454e-18)
(0.738107 -0.388204 2.50631e-19)
(0.743625 -0.354867 -2.42529e-19)
(0.738894 -0.319082 3.75669e-18)
(0.725715 -0.283081 -3.25498e-19)
(0.706206 -0.248657 0)
(0.682453 -0.216812 6.39355e-18)
(0.656359 -0.188092 -2.62369e-18)
(0.629209 -0.162381 1.23698e-17)
(0.601872 -0.139445 0)
(0.574656 -0.118706 -1.1075e-17)
(0.547338 -0.0996337 -9.98879e-18)
(0.518762 -0.0814169 9.86376e-18)
(0.487229 -0.0639338 0)
(0.453237 -0.0478966 9.43115e-18)
(0.41781 -0.0337003 0)
(0.381763 -0.0215485 0)
(0.345783 -0.0114801 0)
(0.310553 -0.00341212 -3.30687e-18)
(0.276411 0.00278451 0)
(0.244093 0.00729224 0)
(0.213196 0.010369 1.78151e-17)
(0.185372 0.0121848 1.52578e-17)
(0.157537 0.013023 0)
(0.136109 0.0132 2.13448e-17)
(0.107964 0.0123232 6.39763e-20)
(0.0975689 0.0123933 0)
(0.0592362 0.0113322 2.42604e-17)
(0.386273 -0.0254211 2.05379e-18)
(0.384164 0.0224815 -1.65973e-18)
(0.386542 0.075034 0)
(0.394728 0.129449 2.77415e-19)
(0.408702 0.183143 1.86226e-17)
(0.429267 0.23682 -1.20927e-17)
(0.456346 0.288057 2.69274e-19)
(0.489389 0.33509 3.00932e-17)
(0.527904 0.376807 3.34924e-19)
(0.570701 0.411588 -2.1095e-17)
(0.616386 0.438304 6.1934e-18)
(0.663311 0.456032 -8.08502e-18)
(0.709469 0.464083 -3.32818e-18)
(0.752808 0.462277 -2.90432e-18)
(0.79113 0.450674 0)
(0.822413 0.429953 -1.263e-18)
(0.844634 0.400932 -3.89238e-18)
(0.856308 0.365139 -1.76394e-17)
(0.856041 0.323989 6.73391e-18)
(0.843318 0.279648 -9.83571e-18)
(0.817927 0.233925 -1.59042e-18)
(0.780759 0.189215 0)
(0.733692 0.147437 1.31587e-17)
(0.679413 0.110362 8.32754e-19)
(0.622199 0.079301 -3.98585e-19)
(0.56538 0.0539765 -5.35791e-18)
(0.509563 0.0335435 1.19815e-18)
(0.455376 0.0174086 2.45641e-18)
(0.403287 0.0050222 -8.83408e-18)
(0.353806 -0.00413631 -4.728e-19)
(0.306985 -0.010505 1.43644e-17)
(0.263678 -0.0145285 2.29127e-17)
(0.222959 -0.0166439 0)
(0.1872 -0.0172348 1.63164e-19)
(0.151838 -0.0165784 -2.81487e-17)
(0.1257 -0.0154484 0)
(0.0915839 -0.0126911 -7.54133e-17)
(0.0800261 -0.0122527 0)
(0.0383785 -0.00872796 -5.00506e-17)
(0.392211 -0.0713832 -1.65865e-18)
(0.402166 -0.117224 3.13496e-18)
(0.41772 -0.167212 0)
(0.440545 -0.219626 0)
(0.470151 -0.270676 1.15188e-17)
(0.50719 -0.319443 3.98181e-17)
(0.55093 -0.363157 0)
(0.598665 -0.398293 -1.41644e-17)
(0.647456 -0.422908 -1.10162e-17)
(0.694714 -0.436293 7.69364e-18)
(0.737348 -0.438196 5.59591e-19)
(0.77268 -0.429474 2.27227e-18)
(0.799159 -0.411751 8.97618e-19)
(0.81565 -0.386824 -2.59207e-19)
(0.822165 -0.357112 -3.01932e-18)
(0.819394 -0.324664 4.57688e-18)
(0.808645 -0.291441 -1.0703e-18)
(0.791545 -0.258872 2.22592e-18)
(0.769919 -0.228041 -1.14498e-18)
(0.745224 -0.199338 -8.74289e-18)
(0.718651 -0.172939 -1.26891e-18)
(0.69085 -0.148547 1.36914e-18)
(0.661911 -0.125823 9.36645e-18)
(0.630933 -0.104046 0)
(0.596268 -0.0830573 -6.29641e-19)
(0.558299 -0.0635593 -1.84144e-17)
(0.517987 -0.0460204 1.39311e-19)
(0.476262 -0.0307479 -1.29408e-19)
(0.43394 -0.017874 0)
(0.391923 -0.0073699 3.41286e-18)
(0.350688 0.000864876 0)
(0.311236 0.00699506 0)
(0.273166 0.011337 -1.82812e-17)
(0.238558 0.0140131 -1.61069e-17)
(0.203824 0.0154955 0)
(0.176617 0.0159245 -2.23711e-17)
(0.141511 0.0152699 7.53224e-17)
(0.127295 0.0152335 -2.47629e-19)
(0.0802563 0.014067 -2.53535e-17)
(0.441976 -0.020957 4.06632e-19)
(0.440006 0.022505 -1.58761e-18)
(0.441896 0.070398 6.13861e-18)
(0.448952 0.120084 -6.3081e-18)
(0.461013 0.169169 -1.22649e-17)
(0.478911 0.218716 0)
(0.502703 0.266638 2.01492e-17)
(0.532031 0.311427 -1.63087e-18)
(0.566727 0.352339 8.23755e-18)
(0.606039 0.387954 1.41219e-17)
(0.649027 0.417223 0)
(0.694548 0.439222 1.60086e-17)
(0.741034 0.453045 7.32848e-18)
(0.786755 0.458142 9.72235e-18)
(0.829688 0.454132 0)
(0.867759 0.44111 -1.60349e-18)
(0.8987 0.41934 -4.78396e-18)
(0.920521 0.389783 8.46434e-18)
(0.931205 0.353434 -1.0485e-17)
(0.929408 0.312111 1.1118e-17)
(0.914061 0.267484 1.64286e-18)
(0.885191 0.221969 -1.44176e-17)
(0.843932 0.177737 0)
(0.792505 0.136935 -1.37507e-17)
(0.735011 0.101412 7.82827e-19)
(0.6752 0.0714671 5.9594e-18)
(0.614358 0.0466568 0)
(0.553721 0.0266021 -1.77078e-19)
(0.494189 0.0108556 4.16764e-19)
(0.436679 -0.0010755 1.55945e-17)
(0.381485 -0.00963969 -1.3974e-17)
(0.329804 -0.0152992 -2.38033e-17)
(0.280749 -0.0185899 2.02772e-17)
(0.237167 -0.019866 -1.04211e-19)
(0.194013 -0.0196395 2.92113e-17)
(0.161342 -0.0185108 4.73485e-17)
(0.119789 -0.0157022 3.98263e-17)
(0.103898 -0.0149917 -4.86392e-19)
(0.0538001 -0.0108314 2.09173e-19)
(0.447285 -0.0627152 7.7854e-19)
(0.456072 -0.104252 5.91783e-18)
(0.469694 -0.149826 5.49175e-18)
(0.489786 -0.197952 -1.16887e-17)
(0.515833 -0.24517 -3.12608e-17)
(0.548584 -0.291034 9.26124e-18)
(0.587669 -0.333348 1.63471e-17)
(0.63096 -0.369059 3.33237e-17)
(0.676203 -0.396424 9.49595e-18)
(0.721553 -0.414851 -8.03206e-18)
(0.764649 -0.423875 1.4511e-18)
(0.803169 -0.423692 -9.50994e-19)
(0.835556 -0.415122 0)
(0.86036 -0.399134 5.96133e-19)
(0.876794 -0.37727 1.67501e-18)
(0.884611 -0.351017 -1.48028e-18)
(0.884169 -0.322026 1.42383e-18)
(0.876307 -0.29175 0)
(0.86231 -0.261487 -4.32278e-18)
(0.843419 -0.231993 9.89232e-18)
(0.820854 -0.203833 0)
(0.795435 -0.17705 -1.00525e-17)
(0.76751 -0.151584 0)
(0.736494 -0.126925 6.42661e-19)
(0.700899 -0.102951 -6.03619e-19)
(0.661022 -0.080373 9.2289e-18)
(0.617692 -0.0597205 1.38396e-19)
(0.571893 -0.0414079 1.30523e-19)
(0.524531 -0.0256872 -5.9277e-20)
(0.476721 -0.0126175 3.52065e-18)
(0.42909 -0.00215774 6.20821e-18)
(0.382932 0.00580444 -1.06324e-17)
(0.337886 0.0116325 -3.08638e-19)
(0.296503 0.0153599 5.47529e-20)
(0.254749 0.0176844 0)
(0.221492 0.0184779 -3.50587e-19)
(0.179191 0.0182257 -3.86855e-17)
(0.160636 0.0180681 -2.68373e-20)
(0.104788 0.0169023 -2.69022e-17)
(0.49039 -0.0169616 3.84538e-19)
(0.488614 0.0225503 2.94818e-18)
(0.490194 0.0662125 0)
(0.496388 0.111515 1.38298e-19)
(0.506925 0.156221 -1.15319e-17)
(0.522592 0.201593 0)
(0.543513 0.245776 8.83964e-18)
(0.569407 0.28749 -4.62899e-17)
(0.600298 0.326263 4.86196e-17)
(0.635705 0.360919 -1.52991e-17)
(0.675021 0.390564 -1.1673e-17)
(0.717526 0.414411 -2.40542e-17)
(0.762101 0.431566 -1.13507e-17)
(0.807429 0.441369 -6.22654e-18)
(0.851881 0.443235 -2.0175e-19)
(0.893613 0.436887 1.76754e-18)
(0.930478 0.422186 4.70146e-18)
(0.960346 0.399555 6.25322e-18)
(0.980893 0.369512 -5.91102e-18)
(0.990171 0.333346 -2.33063e-17)
(0.986363 0.292379 0)
(0.968523 0.248735 6.56051e-19)
(0.936787 0.204558 1.23796e-17)
(0.892482 0.162125 1.36264e-17)
(0.839023 0.123673 -7.60555e-19)
(0.780126 0.0900654 -5.76645e-18)
(0.717531 0.0613602 4.20202e-20)
(0.653036 0.0375261 -2.86053e-18)
(0.587997 0.0183406 2.88261e-19)
(0.523821 0.00342732 -3.18645e-17)
(0.461122 -0.00760723 -2.62854e-20)
(0.40153 -0.0151915 -4.0151e-19)
(0.344281 -0.0199412 -2.13945e-17)
(0.292757 -0.0221374 -1.2567e-19)
(0.241544 -0.0225648 -3.03288e-17)
(0.201876 -0.0215586 -9.89732e-17)
(0.152489 -0.0188776 4.12672e-17)
(0.13157 -0.0178706 3.07946e-17)
(0.0726532 -0.0131531 -5.50397e-17)
(0.495105 -0.0549735 -2.9365e-18)
(0.502866 -0.0926929 -8.74277e-18)
(0.514838 -0.134269 -5.19246e-18)
(0.532579 -0.178389 -1.05414e-17)
(0.555549 -0.221829 2.07102e-17)
(0.584508 -0.264454 -7.48749e-19)
(0.619273 -0.304453 -4.54911e-17)
(0.658075 -0.339159 -1.09993e-17)
(0.699127 -0.367052 1.07537e-18)
(0.741126 -0.387781 0)
(0.782351 -0.400925 -5.66365e-18)
(0.820983 -0.406446 4.03058e-18)
(0.855783 -0.404777 -2.29766e-18)
(0.885441 -0.396383 -3.12326e-19)
(0.908901 -0.382091 -4.87941e-19)
(0.925404 -0.362793 -4.65055e-19)
(0.934596 -0.339624 -5.34397e-18)
(0.936513 -0.31372 1.54643e-18)
(0.931707 -0.286274 4.23735e-18)
(0.920896 -0.258144 0)
(0.904995 -0.230114 9.17025e-18)
(0.884731 -0.202505 8.67279e-18)
(0.860536 -0.175538 -7.66217e-20)
(0.832053 -0.148961 1.18989e-18)
(0.79801 -0.122776 6.10417e-19)
(0.758603 -0.0977144 -9.81935e-18)
(0.714484 -0.0743729 2.78628e-19)
(0.666622 -0.0532706 -2.339e-18)
(0.61594 -0.0347977 -5.41371e-19)
(0.563737 -0.0191323 -3.49165e-18)
(0.51077 -0.00632523 -4.40248e-20)
(0.458659 0.0036421 2.29205e-17)
(0.407094 0.0111629 1.91258e-17)
(0.359153 0.0161345 1.71245e-17)
(0.310403 0.0195086 4.55178e-19)
(0.270937 0.0207955 -2.00154e-19)
(0.221267 0.0211405 4.0909e-17)
(0.197904 0.0208659 3.16117e-17)
(0.133136 0.0198404 2.80259e-17)
(0.53282 -0.0135083 -1.42227e-18)
(0.531257 0.0225831 -1.52732e-18)
(0.532651 0.0625443 -1.10079e-17)
(0.538188 0.103981 4.50429e-17)
(0.547527 0.144771 -2.14024e-17)
(0.561394 0.18629 1.99196e-17)
(0.579917 0.226851 -3.8808e-17)
(0.602851 0.265332 0)
(0.630304 0.301491 -1.56754e-17)
(0.661959 0.33431 1.09872e-18)
(0.697419 0.363059 1.12144e-17)
(0.73626 0.387131 2.28403e-17)
(0.77771 0.40573 4.57219e-18)
(0.820835 0.418225 0)
(0.864433 0.424006 0)
(0.907028 0.422634 0)
(0.946809 0.413769 0)
(0.981825 0.397458 -6.17416e-18)
(1.0098 0.373846 8.26968e-18)
(1.02855 0.3437 9.89358e-18)
(1.03581 0.307917 -8.84764e-18)
(1.02984 0.268127 8.99851e-18)
(1.00977 0.2262 -1.00412e-17)
(0.975804 0.184265 -7.35983e-19)
(0.930235 0.144683 -3.72397e-19)
(0.876227 0.108739 6.11667e-18)
(0.815586 0.0769894 1.32768e-18)
(0.750432 0.049819 0)
(0.682483 0.0273349 0)
(0.613632 0.00937456 1.57046e-19)
(0.544845 -0.0043233 0)
(0.478263 -0.0140847 2.53467e-17)
(0.413312 -0.0205707 -2.25874e-17)
(0.353995 -0.0239354 -3.6816e-17)
(0.294628 -0.0252614 6.26033e-17)
(0.247624 -0.0245265 5.20483e-17)
(0.190051 -0.0221718 -4.31953e-17)
(0.163452 -0.0208663 -6.5249e-17)
(0.0953087 -0.0157118 5.82883e-17)
(0.537001 -0.048274 0)
(0.543877 -0.0827027 2.88826e-18)
(0.55446 -0.120798 1.08838e-17)
(0.570224 -0.161365 -4.062e-17)
(0.590603 -0.201371 2.85281e-17)
(0.616347 -0.240877 -1.76762e-17)
(0.647339 -0.278351 1.17895e-18)
(0.682062 -0.311377 1.3023e-17)
(0.718995 -0.338623 1.00067e-17)
(0.757198 -0.359941 0)
(0.795401 -0.375044 2.53234e-18)
(0.832233 -0.383866 -6.42465e-18)
(0.866845 -0.386715 5.76682e-18)
(0.898269 -0.383856 3.37515e-19)
(0.925547 -0.37569 5.39096e-19)
(0.947835 -0.36268 1.63614e-18)
(0.964437 -0.345475 2.53983e-18)
(0.974862 -0.324802 0)
(0.979014 -0.301529 0)
(0.977011 -0.276398 0)
(0.969259 -0.250186 -9.04536e-18)
(0.956158 -0.22334 0)
(0.93798 -0.19626 7.96548e-18)
(0.914457 -0.168945 1.14101e-18)
(0.884444 -0.141531 9.21584e-18)
(0.848004 -0.114791 9.25199e-18)
(0.805557 -0.0893886 0)
(0.757966 -0.0659364 2.09798e-18)
(0.706074 -0.0449696 6.08684e-19)
(0.6513 -0.0268084 -1.1267e-19)
(0.594472 -0.0116263 -1.29231e-17)
(0.537542 0.000459076 -8.07077e-20)
(0.48024 0.00984734 -2.00734e-17)
(0.426237 0.0162452 1.72844e-17)
(0.370722 0.0208798 0)
(0.325053 0.0228029 3.79483e-19)
(0.267934 0.0239531 -4.83437e-19)
(0.239386 0.0235865 -3.33364e-17)
(0.16559 0.0228759 2.33131e-19)
(0.570334 -0.0105573 1.34378e-18)
(0.568987 0.0225736 0)
(0.570274 0.0593167 2.05893e-17)
(0.575311 0.0973754 -2.17384e-17)
(0.5837 0.134725 1.04843e-17)
(0.596119 0.172809 -1.99088e-17)
(0.612671 0.210054 1.89351e-17)
(0.633122 0.245481 1.64564e-17)
(0.657615 0.278979 0)
(0.685921 0.309662 1.1364e-17)
(0.717763 0.336941 8.82389e-18)
(0.752905 0.360347 -8.46185e-18)
(0.790812 0.379194 -1.79625e-17)
(0.830848 0.392933 -2.9559e-18)
(0.872152 0.401011 7.00911e-18)
(0.913611 0.402957 1.04464e-18)
(0.953821 0.398379 9.10287e-19)
(0.991167 0.387128 2.28444e-18)
(1.02368 0.369145 -1.38708e-18)
(1.04927 0.344811 2.31899e-18)
(1.06562 0.314649 6.6407e-18)
(1.07056 0.279771 1.24553e-18)
(1.06245 0.241637 -1.44317e-18)
(1.04046 0.202005 -9.80789e-18)
(1.00553 0.163075 0)
(0.959852 0.126321 -5.43672e-18)
(0.904843 0.0926785 -2.62537e-18)
(0.84257 0.0629236 -2.43284e-18)
(0.774846 0.0375426 -8.98556e-18)
(0.703926 0.0166624 3.33595e-17)
(0.631074 0.00023504 1.37116e-17)
(0.558969 -0.0118852 2.23885e-19)
(0.487259 -0.0203557 1.36044e-19)
(0.420659 -0.0251376 0)
(0.3533 -0.0276208 -3.26933e-17)
(0.298808 -0.0273335 0)
(0.232791 -0.0255255 0)
(0.199944 -0.0239455 3.45053e-17)
(0.122139 -0.018523 -4.81457e-19)
(0.574042 -0.042521 -3.95534e-18)
(0.580159 -0.0741133 1.03804e-17)
(0.589572 -0.109189 5.47681e-19)
(0.603675 -0.146639 1.05511e-17)
(0.621886 -0.183603 -2.69509e-17)
(0.644923 -0.220271 1.51869e-17)
(0.672709 -0.255321 -1.50678e-18)
(0.703885 -0.286482 -1.21603e-17)
(0.737102 -0.312583 -9.99391e-18)
(0.771634 -0.333612 -8.32334e-18)
(0.806499 -0.349378 -1.17302e-17)
(0.840639 -0.359864 0)
(0.873534 -0.365373 -2.5846e-18)
(0.904564 -0.366126 3.46315e-19)
(0.933023 -0.362337 0)
(0.958224 -0.354252 7.31337e-19)
(0.979468 -0.342187 5.13092e-19)
(0.996064 -0.326527 1.08251e-18)
(1.00754 -0.307803 -6.05953e-18)
(1.01356 -0.286508 -7.04669e-18)
(1.01401 -0.263258 1.06819e-18)
(1.00888 -0.238462 -8.21851e-18)
(0.998123 -0.212567 -2.65132e-18)
(0.981372 -0.185721 1.08551e-18)
(0.957492 -0.158173 -8.59871e-18)
(0.926336 -0.13071 -5.45355e-19)
(0.888007 -0.104047 0)
(0.843167 -0.078867 0)
(0.792452 -0.0558416 1.1987e-19)
(0.737296 -0.0354393 -3.33452e-19)
(0.678494 -0.0179764 1.32556e-17)
(0.6183 -0.00374781 -1.01285e-19)
(0.556429 0.00762859 -2.1009e-17)
(0.497204 0.0156076 -1.78471e-17)
(0.435425 0.0217058 -4.65901e-19)
(0.38379 0.0244163 3.7362e-20)
(0.319287 0.0265907 -8.82677e-17)
(0.285312 0.0261785 3.46188e-17)
(0.20241 0.0259965 -2.43331e-19)
(0.603765 -0.00805067 6.22446e-19)
(0.602624 0.0225027 0)
(0.603853 0.0564273 -1.01874e-17)
(0.608503 0.0915267 0)
(0.616132 0.125864 1.88815e-17)
(0.627372 0.160902 -1.86773e-17)
(0.642299 0.195177 -1.70558e-17)
(0.660682 0.227817 -1.60259e-17)
(0.68267 0.258798 0)
(0.708079 0.287335 1.17299e-17)
(0.736705 0.312954 -9.01249e-18)
(0.768424 0.335281 1.51104e-17)
(0.802851 0.353737 6.3798e-18)
(0.839548 0.36785 4.61874e-18)
(0.877904 0.377127 -4.1624e-18)
(0.917099 0.381123 -1.03483e-18)
(0.956073 0.379468 -1.76587e-18)
(0.993572 0.371941 -3.40561e-18)
(1.02802 0.35841 0)
(1.05764 0.339028 2.08773e-18)
(1.08035 0.314089 -4.37483e-18)
(1.09399 0.284289 9.88605e-19)
(1.09651 0.250678 -1.13117e-19)
(1.08637 0.21456 2.36758e-17)
(1.06328 0.177758 -1.35299e-18)
(1.02827 0.141687 8.46744e-19)
(0.981986 0.107458 2.55285e-18)
(0.926018 0.0761185 2.73533e-18)
(0.861903 0.0485021 8.20496e-18)
(0.791998 0.0250559 -1.64835e-17)
(0.717679 0.00600209 -1.34876e-17)
(0.642107 -0.00854885 -5.32763e-17)
(0.565117 -0.0191926 4.65956e-17)
(0.492203 -0.0256206 -6.44523e-19)
(0.41736 -0.0295229 3.40318e-17)
(0.355503 -0.0298813 -1.291e-18)
(0.280939 -0.0288616 7.65766e-19)
(0.241415 -0.0270592 -5.44725e-19)
(0.153508 -0.0215915 6.4174e-17)
(0.607056 -0.0375637 2.52251e-18)
(0.612522 -0.0666941 -5.32341e-18)
(0.620941 -0.099132 9.66125e-18)
(0.63363 -0.133849 0)
(0.650016 -0.168116 1.75977e-17)
(0.670767 -0.202252 0)
(0.695842 -0.235052 0)
(0.723985 -0.264384 0)
(0.753967 -0.289189 1.81069e-17)
(0.785193 -0.309539 -6.51897e-18)
(0.816851 -0.325297 6.47085e-18)
(0.848087 -0.336486 0)
(0.878601 -0.343433 0)
(0.908034 -0.346383 -1.50438e-18)
(0.935928 -0.345482 0)
(0.96184 -0.340894 -7.24175e-19)
(0.985233 -0.33277 -3.7825e-19)
(1.00547 -0.321287 0)
(1.02197 -0.306718 4.44278e-18)
(1.03419 -0.289326 8.4827e-18)
(1.04168 -0.269504 7.11887e-18)
(1.04407 -0.247535 8.25791e-18)
(1.04097 -0.223781 -1.66891e-17)
(1.03184 -0.198434 0)
(1.01544 -0.17179 -7.90825e-18)
(0.991328 -0.14459 -8.96534e-18)
(0.959226 -0.117564 -4.1379e-18)
(0.91949 -0.0914207 0)
(0.872402 -0.0669343 4.7311e-19)
(0.819285 -0.0447075 3.53395e-18)
(0.76073 -0.0252013 -1.30914e-17)
(0.699234 -0.0089177 -1.25915e-19)
(0.634372 0.00448798 2.05555e-17)
(0.571168 0.0141552 -1.72667e-17)
(0.503961 0.0218982 -4.11708e-20)
(0.446893 0.0255462 -4.43916e-19)
(0.375275 0.0289691 9.14309e-17)
(0.335822 0.028578 -3.55044e-17)
(0.243801 0.0291768 -6.34239e-17)
(0.633751 -0.0059213 6.20985e-19)
(0.632802 0.0223641 -2.44089e-18)
(0.634006 0.0537994 0)
(0.638353 0.0862791 -1.8538e-17)
(0.645367 0.117957 0)
(0.655635 0.15029 0)
(0.669215 0.181915 9.93862e-19)
(0.685859 0.212039 -1.32311e-17)
(0.705732 0.240698 -2.44219e-17)
(0.72866 0.267193 -4.30012e-17)
(0.754483 0.291144 -1.75004e-17)
(0.783149 0.312253 -1.41445e-17)
(0.814371 0.330016 0)
(0.847842 0.344019 -1.09823e-17)
(0.883115 0.353842 3.04361e-18)
(0.919574 0.35906 0)
(0.95642 0.359342 4.28509e-19)
(0.992693 0.354441 3.38105e-18)
(1.02717 0.344227 0)
(1.05846 0.328748 6.29895e-18)
(1.08485 0.3082 -7.64411e-18)
(1.10444 0.283013 0)
(1.11522 0.253932 -1.26879e-18)
(1.11537 0.221849 -2.14154e-20)
(1.1037 0.188137 6.29342e-19)
(1.08021 0.153958 1.02029e-17)
(1.04463 0.120401 -4.14479e-20)
(0.997746 0.0885946 -2.9115e-19)
(0.94044 0.0596132 -2.64172e-19)
(0.874818 0.0341792 5.16046e-19)
(0.802051 0.0127998 1.46431e-17)
(0.725623 -0.0041053 5.1938e-17)
(0.645397 -0.017016 5.44813e-19)
(0.567683 -0.0252722 -4.00795e-17)
(0.486298 -0.0308413 -3.35565e-17)
(0.417573 -0.0320577 -5.7965e-17)
(0.334587 -0.0320862 -4.88788e-17)
(0.288164 -0.0301428 1.20414e-18)
(0.189755 -0.0249113 -6.66753e-17)
(0.636671 -0.0332782 -4.96991e-18)
(0.641574 -0.0602438 -1.41464e-17)
(0.649145 -0.0903564 2.61993e-17)
(0.660626 -0.12265 0)
(0.675462 -0.154524 3.15572e-17)
(0.694265 -0.186385 0)
(0.717034 -0.217126 -1.08275e-17)
(0.742586 -0.244733 3.91627e-17)
(0.769782 -0.268238 -2.54385e-17)
(0.798116 -0.287752 0)
(0.826881 -0.303177 1.11629e-17)
(0.855348 -0.314558 8.54325e-18)
(0.883344 -0.322238 0)
(0.910681 -0.326475 -3.88378e-18)
(0.937091 -0.327403 1.53133e-19)
(0.962335 -0.325173 -1.47925e-19)
(0.986076 -0.319865 -5.10327e-19)
(1.00784 -0.311559 -1.78304e-18)
(1.02712 -0.300376 -3.43408e-19)
(1.04337 -0.286427 -4.30476e-18)
(1.05602 -0.26992 -2.41903e-18)
(1.06454 -0.250993 1.72052e-18)
(1.06827 -0.229869 8.05836e-18)
(1.06651 -0.206706 -7.85402e-18)
(1.05793 -0.181776 7.36744e-18)
(1.04178 -0.155712 9.42041e-18)
(1.01734 -0.129202 4.13328e-18)
(0.9846 -0.102919 6.16797e-20)
(0.943359 -0.0776838 -5.33684e-19)
(0.894694 -0.0541938 -3.56079e-18)
(0.838785 -0.0330284 1.0403e-19)